
#(C) 2024 by FIZ Karlsruhe - Leibniz Institute for Information Infrastructure.  All rights reserved.
data_149264-ICSD
_database_code_ICSD 149264
_audit_creation_date 2024-02-01
_chemical_name_common 'Titanium zirconium hafnium molybdenum tantalum hydride'
_chemical_formula_structural '(Ti0.2 Zr0.2 Hf0.2 Mo0.2 Ta0.2) H1.5'
_chemical_formula_sum 'H1.5 Hf0.2 Mo0.2 Ta0.2 Ti0.2 Zr0.2'
_chemical_name_structure_type (Hf,Mo)H2-x
_exptl_crystal_density_diffrn 8.12
_citation_title 'Structure of a hydride based on TiZrHfMoTa high-entropy alloy'
loop_
_citation_id
_citation_journal_full
_citation_year
_citation_journal_volume
_citation_page_first
_citation_page_last
_citation_journal_id_ASTM
primary 'Inorganic Materials' 2023 59 832 835 INOMAF
loop_
_citation_author_citation_id
_citation_author_name
primary 'Lushnikov, S.A.'
primary 'Agafonov, S.S.'
_cell_length_a 3.289(2)
_cell_length_b 3.289(2)
_cell_length_c 4.554(3)
_cell_angle_alpha 90.
_cell_angle_beta 90.
_cell_angle_gamma 90.
_cell_volume 49.26
_cell_formula_units_Z 2
_space_group_name_H-M_alt 'I 4/m m m'
_space_group_IT_number 139
loop_
_space_group_symop_id
_space_group_symop_operation_xyz
1 'y, x, -z'
2 '-y, -x, -z'
3 '-y, x, -z'
4 'y, -x, -z'
5 '-x, y, -z'
6 'x, -y, -z'
7 'x, y, -z'
8 '-x, -y, -z'
9 '-y, -x, z'
10 'y, x, z'
11 'y, -x, z'
12 '-y, x, z'
13 'x, -y, z'
14 '-x, y, z'
15 '-x, -y, z'
16 'x, y, z'
17 'y+1/2, x+1/2, -z+1/2'
18 '-y+1/2, -x+1/2, -z+1/2'
19 '-y+1/2, x+1/2, -z+1/2'
20 'y+1/2, -x+1/2, -z+1/2'
21 '-x+1/2, y+1/2, -z+1/2'
22 'x+1/2, -y+1/2, -z+1/2'
23 'x+1/2, y+1/2, -z+1/2'
24 '-x+1/2, -y+1/2, -z+1/2'
25 '-y+1/2, -x+1/2, z+1/2'
26 'y+1/2, x+1/2, z+1/2'
27 'y+1/2, -x+1/2, z+1/2'
28 '-y+1/2, x+1/2, z+1/2'
29 'x+1/2, -y+1/2, z+1/2'
30 '-x+1/2, y+1/2, z+1/2'
31 '-x+1/2, -y+1/2, z+1/2'
32 'x+1/2, y+1/2, z+1/2'
loop_
_atom_type_symbol
_atom_type_oxidation_number
Zr0+ 0
Ti0+ 0
Hf0+ 0
Mo0+ 0
Ta0+ 0
H0+ 0
loop_
_atom_site_label
_atom_site_type_symbol
_atom_site_symmetry_multiplicity
_atom_site_Wyckoff_symbol
_atom_site_fract_x
_atom_site_fract_y
_atom_site_fract_z
_atom_site_B_iso_or_equiv
_atom_site_occupancy
Zr1 Zr0+ 2 a 0 0 0 . 0.2
Ti1 Ti0+ 2 a 0 0 0 . 0.2
Hf1 Hf0+ 2 a 0 0 0 . 0.2
Mo1 Mo0+ 2 a 0 0 0 . 0.2
Ta1 Ta0+ 2 a 0 0 0 . 0.2
H1 H0+ 4 d 0 0.5 0.25 . 0.75
#End of TTdata_149264-ICSD